# vtk DataFile Version 2.0
data set from DREAM3D
ASCII
DATASET RECTILINEAR_GRID
DIMENSIONS 41 81 81
X_COORDINATES 41 float
-0.500000 0.500000 1.500000 2.500000 3.500000 4.500000 5.500000 6.500000 7.500000 8.500000 9.500000 10.500000 11.500000 12.500000 13.500000 14.500000 15.500000 16.500000 17.500000 18.500000 19.500000 
20.500000 21.500000 22.500000 23.500000 24.500000 25.500000 26.500000 27.500000 28.500000 29.500000 30.500000 31.500000 32.500000 33.500000 34.500000 35.500000 36.500000 37.500000 38.500000 39.500000 

Y_COORDINATES 81 float
-0.500000 0.500000 1.500000 2.500000 3.500000 4.500000 5.500000 6.500000 7.500000 8.500000 9.500000 10.500000 11.500000 12.500000 13.500000 14.500000 15.500000 16.500000 17.500000 18.500000 19.500000 
20.500000 21.500000 22.500000 23.500000 24.500000 25.500000 26.500000 27.500000 28.500000 29.500000 30.500000 31.500000 32.500000 33.500000 34.500000 35.500000 36.500000 37.500000 38.500000 39.500000 
40.500000 41.500000 42.500000 43.500000 44.500000 45.500000 46.500000 47.500000 48.500000 49.500000 50.500000 51.500000 52.500000 53.500000 54.500000 55.500000 56.500000 57.500000 58.500000 59.500000 
60.500000 61.500000 62.500000 63.500000 64.500000 65.500000 66.500000 67.500000 68.500000 69.500000 70.500000 71.500000 72.500000 73.500000 74.500000 75.500000 76.500000 77.500000 78.500000 79.500000 

Z_COORDINATES 81 float
-0.500000 0.500000 1.500000 2.500000 3.500000 4.500000 5.500000 6.500000 7.500000 8.500000 9.500000 10.500000 11.500000 12.500000 13.500000 14.500000 15.500000 16.500000 17.500000 18.500000 19.500000 
20.500000 21.500000 22.500000 23.500000 24.500000 25.500000 26.500000 27.500000 28.500000 29.500000 30.500000 31.500000 32.500000 33.500000 34.500000 35.500000 36.500000 37.500000 38.500000 39.500000 
40.500000 41.500000 42.500000 43.500000 44.500000 45.500000 46.500000 47.500000 48.500000 49.500000 50.500000 51.500000 52.500000 53.500000 54.500000 55.500000 56.500000 57.500000 58.500000 59.500000 
60.500000 61.500000 62.500000 63.500000 64.500000 65.500000 66.500000 67.500000 68.500000 69.500000 70.500000 71.500000 72.500000 73.500000 74.500000 75.500000 76.500000 77.500000 78.500000 79.500000 

CELL_DATA 256000
SCALARS FeatureIds int 1
LOOKUP_TABLE default
20 20 20 20 20 20 20 20 20 48 48 48 48 48 48 48 48 48 48 48 
48 48 48 83 83 83 83 83 83 83 1 1 1 1 1 1 1 1 1 1 
20 20 20 20 20 20 20 20 20 48 48 48 48 48 48 48 48 48 48 48 
48 48 48 83 83 83 83 83 83 83 1 1 1 1 1 1 1 1 1 1 
20 20 20 20 20 20 20 20 20 48 48 48 48 48 48 48 48 48 48 48 
48 48 48 83 83 83 83 83 83 83 1 1 1 1 1 1 1 1 1 1 
20 20 20 20 20 20 20 20 20 48 48 48 48 48 48 48 48 48 48 48 
48 48 83 83 83 83 83 83 83 83 83 1 1 1 1 1 1 1 1 1 
20 20 20 20 20 20 20 20 48 48 48 48 48 48 48 48 48 48 48 48 
48 48 83 83 83 83 83 83 83 83 1 1 1 1 1 1 1 1 1 1 
20 20 20 20 20 20 20 20 48 48 48 48 48 48 48 48 48 48 48 48 
48 48 83 83 83 83 83 83 83 83 1 1 1 1 1 1 1 1 1 1 
20 20 20 20 20 20 20 20 48 48 48 48 48 48 48 48 48 48 48 48 
48 48 83 83 83 83 83 83 83 83 1 1 1 1 1 1 1 1 1 1 
20 20 20 20 20 20 20 20 48 48 48 48 48 48 48 48 48 48 48 48 
48 48 83 83 83 83 83 83 83 83 1 1 1 1 1 1 1 1 1 1 
20 20 20 20 20 20 20 20 48 48 48 48 48 48 48 48 48 48 48 48 
48 48 83 83 83 83 83 83 83 83 83 1 1 1 1 1 1 1 1 1 
20 20 20 20 20 20 20 20 48 48 48 48 48 48 48 48 48 48 48 48 
48 48 83 83 83 83 83 83 83 83 83 1 1 1 1 1 1 1 1 1 
20 20 20 20 20 20 20 20 48 48 48 48 48 48 48 48 48 48 48 48 
48 83 83 83 83 83 83 83 83 83 83 1 1 1 1 1 1 1 1 1 
20 20 20 20 20 20 20 20 48 48 48 48 48 48 48 48 48 48 48 48 
48 83 83 83 83 83 83 83 83 83 83 1 1 1 1 1 1 1 1 1 
20 20 20 20 20 20 20 20 48 48 48 48 48 48 48 48 48 48 48 48 
48 83 83 83 83 83 83 83 83 83 83 1 1 1 1 1 1 1 1 1 
20 20 20 20 20 20 20 20 48 48 48 48 48 48 48 48 48 48 48 48 
83 83 83 83 83 83 83 83 83 83 83 1 1 1 1 1 1 1 1 1 
20 20 20 20 20 20 20 20 48 48 48 48 48 48 48 48 48 48 48 48 
83 83 83 83 83 83 83 83 83 83 83 1 1 1 1 1 1 1 1 1 
20 20 20 20 20 20 20 20 48 48 48 48 48 48 48 48 48 48 48 48 
83 83 83 83 83 83 83 83 83 83 83 1 1 1 1 1 1 1 1 71 
20 20 20 20 20 20 20 48 48 48 48 48 48 48 48 48 48 48 48 48 
83 83 83 83 83 83 83 83 83 83 83 1 1 1 1 1 1 1 1 71 
20 20 20 20 20 20 20 48 48 48 48 48 48 48 48 48 48 48 48 48 
83 83 83 83 83 83 83 83 83 83 83 1 1 1 1 1 1 1 1 71 
20 20 20 20 20 20 20 48 48 48 48 48 48 48 48 48 48 48 48 48 
83 83 83 83 83 83 83 83 83 83 83 1 1 1 1 1 1 1 71 71 
20 20 20 20 20 20 20 48 48 48 48 48 48 48 48 48 48 48 48 83 
83 83 83 83 83 83 83 83 83 83 83 1 1 1 1 1 1 1 71 71 
20 20 20 20 20 20 20 48 48 48 48 48 48 48 48 48 48 48 48 83 
83 83 83 83 83 83 83 83 83 83 83 1 1 1 1 1 1 1 71 71 
20 20 20 20 20 20 20 48 48 48 48 48 48 48 48 48 48 48 48 83 
83 83 83 83 83 83 83 83 83 83 83 1 1 1 1 1 1 1 71 71 
20 20 20 20 20 20 20 48 48 48 48 48 48 48 48 48 48 48 48 83 
83 83 83 83 83 83 83 83 83 83 83 1 1 1 1 1 1 1 71 71 
20 20 20 20 20 20 20 48 48 48 48 48 48 48 48 48 48 48 48 83 
83 83 83 83 83 83 83 83 83 83 1 1 1 1 1 1 1 1 71 71 
20 20 20 20 20 20 15 48 48 48 48 48 48 48 48 48 48 48 48 83 
83 83 83 83 83 83 83 83 83 83 1 1 1 1 1 1 1 71 71 71 
20 20 20 20 20 15 15 48 48 48 48 48 48 48 48 48 48 48 48 83 
83 83 83 83 83 83 83 83 83 83 1 1 1 1 1 1 1 71 71 71 
20 20 20 20 20 15 15 48 48 48 48 48 48 48 48 48 48 48 48 83 
83 83 83 83 83 83 83 83 83 83 1 1 1 1 1 1 1 71 71 71 
20 20 20 20 15 15 15 48 48 48 48 48 48 48 48 48 48 48 48 83 
83 83 83 83 83 83 83 83 83 83 1 1 1 1 1 1 1 71 71 71 
20 20 20 15 15 15 15 48 48 48 48 48 48 48 48 48 48 48 48 83 
83 83 83 83 83 83 83 83 83 83 1 1 1 1 1 1 1 71 71 71 
20 20 20 15 15 15 15 15 48 48 48 48 48 48 48 48 48 48 83 83 
83 83 83 83 83 83 83 83 83 83 1 1 1 1 1 1 1 71 71 71 
20 20 15 15 15 15 15 15 48 48 48 48 48 48 48 48 48 48 83 83 
83 83 83 83 83 83 83 83 83 83 1 1 1 1 1 1 1 71 161 71 
20 20 15 15 15 15 15 15 48 48 48 48 48 48 48 48 48 48 83 83 
83 83 83 83 83 83 83 83 83 83 1 1 1 1 1 1 1 71 71 71 
20 15 15 15 15 15 15 15 48 48 48 48 48 48 48 48 48 48 48 83 
83 83 83 83 83 83 83 83 83 83 1 1 1 1 1 1 1 71 71 71 
15 15 15 15 15 15 15 15 48 48 48 48 48 48 48 48 48 48 83 83 
83 83 83 83 83 83 83 83 83 83 1 1 1 1 1 1 1 1 71 71 
15 15 15 15 15 15 15 15 48 48 48 48 48 48 48 48 48 48 83 83 
83 83 83 83 83 83 83 83 83 1 1 1 1 1 1 1 1 1 71 71 
15 15 15 15 15 15 15 15 48 48 48 48 48 48 48 48 48 48 83 83 
83 83 148 83 83 83 83 83 83 1 1 1 1 1 1 1 1 1 71 71 
15 15 15 15 15 15 15 15 48 48 48 48 48 48 48 48 48 48 83 83 
83 83 148 83 83 83 83 83 83 1 1 1 1 1 1 1 1 1 71 71 
15 15 15 15 15 15 15 15 48 48 48 48 48 48 48 48 48 48 83 83 
83 148 148 83 83 83 83 83 83 1 1 1 1 1 1 1 1 1 71 71 
15 15 15 15 15 15 15 15 48 48 48 48 48 48 48 48 48 48 83 83 
83 148 148 83 83 83 83 83 76 76 1 1 1 1 1 1 1 1 71 71 
15 15 15 15 15 15 15 15 48 48 48 48 48 48 48 48 48 48 83 83 
148 148 148 83 83 83 83 76 76 76 76 1 1 1 1 1 1 1 71 71 
15 15 15 15 15 15 15 15 48 48 48 48 48 48 48 48 48 48 83 83 
148 148 148 83 83 83 76 76 76 76 76 76 1 1 1 1 1 1 25 25 
15 15 15 15 15 15 15 15 48 48 48 48 48 48 48 48 48 48 83 83 
148 148 148 83 83 76 76 76 76 76 76 76 76 1 1 1 1 25 25 25 
15 15 15 15 15 15 15 15 48 48 48 48 48 48 48 48 82 82 82 148 
148 148 148 148 76 76 76 76 76 76 76 76 76 76 76 1 1 25 25 25 
15 15 15 15 15 15 15 15 15 48 48 48 48 48 82 82 82 82 82 148 
148 148 148 148 76 76 76 76 76 76 76 76 76 76 76 1 1 25 25 25 
15 15 15 15 15 15 15 15 15 48 48 48 48 82 82 82 82 82 82 76 
148 148 148 76 76 76 76 76 76 76 76 76 76 76 76 76 25 25 25 25 
15 15 15 15 15 15 15 15 15 15 48 82 82 82 82 82 82 82 82 76 
148 148 148 76 76 76 76 76 76 76 76 76 76 76 76 76 25 25 25 25 
15 15 15 15 15 15 15 15 15 15 82 82 82 82 82 82 82 82 82 82 
148 148 76 76 76 76 76 76 76 76 76 76 76 76 76 76 25 25 25 25 
15 15 15 15 15 15 15 15 15 15 82 82 82 82 82 82 82 82 82 82 
76 148 76 76 76 76 76 76 76 76 76 76 76 76 76 76 25 25 25 25 
15 15 15 15 15 15 15 15 15 82 82 82 82 82 82 82 82 82 82 76 
76 76 76 76 76 76 76 76 76 76 76 76 76 76 76 76 25 25 25 25 
15 15 15 15 15 15 15 15 15 82 82 82 82 82 82 82 82 82 82 76 
76 76 76 76 76 76 76 76 76 76 76 76 76 76 76 76 25 25 25 25 
15 15 15 15 15 15 15 15 15 82 82 82 82 82 82 82 82 82 82 82 
76 76 76 76 76 76 76 76 76 76 76 76 76 76 76 25 25 25 25 25 
15 15 15 15 15 15 15 15 82 82 82 82 82 82 82 82 82 82 82 82 
76 76 76 76 76 76 76 76 76 76 76 76 76 76 76 25 25 25 25 25 
15 15 15 15 15 15 15 15 82 82 82 82 82 82 82 82 82 82 82 82 
76 76 76 76 76 76 76 76 76 76 76 76 76 76 76 25 25 25 25 25 
15 15 15 15 15 15 15 82 82 82 82 82 82 82 82 82 82 82 82 82 
76 76 76 76 76 76 76 76 76 76 76 76 76 76 76 25 25 25 25 25 
15 15 15 15 15 15 15 82 82 82 82 82 82 82 82 82 82 82 82 82 
76 76 76 76 76 76 76 76 76 76 76 76 76 76 76 25 25 25 25 25 
15 15 15 15 15 15 15 82 82 82 82 82 82 82 82 82 82 82 82 82 
76 76 76 76 76 76 76 76 76 76 76 76 76 76 76 25 25 25 25 25 
15 15 15 15 15 15 82 82 82 82 82 82 82 82 82 82 82 82 82 82 
76 76 76 76 76 76 76 76 76 76 76 76 76 76 25 25 25 25 25 25 
15 15 15 15 15 15 82 82 82 82 82 82 82 82 82 82 82 82 82 82 
76 76 76 76 76 76 76 76 76 76 76 76 76 76 25 25 25 25 25 25 
15 15 15 15 15 82 82 82 82 82 82 82 82 82 82 82 82 82 82 82 
76 76 76 76 76 76 76 76 76 76 76 76 76 76 25 25 25 25 25 25 
15 15 15 15 15 82 82 82 82 82 82 82 82 82 82 82 82 82 82 82 
76 76 76 76 76 76 76 76 76 76 76 76 76 76 25 25 25 25 25 25 
15 15 15 15 15 82 82 82 82 82 82 82 82 82 82 82 82 82 82 82 
76 76 76 76 76 76 76 76 76 76 76 76 76 76 25 25 25 25 25 25 
15 15 15 15 82 82 82 82 82 82 82 82 82 82 82 82 82 82 82 82 
76 76 76 76 76 76 76 76 76 76 76 76 76 76 25 25 25 25 25 25 
15 15 15 15 82 82 82 82 82 82 82 82 82 82 82 82 82 82 82 82 
76 76 76 76 76 76 76 76 76 76 76 76 76 25 25 25 25 25 25 25 
15 15 15 15 82 82 82 82 82 82 82 82 82 82 82 82 82 82 82 82 
76 76 76 76 76 76 76 76 76 76 76 76 76 25 25 25 25 25 25 25 
15 15 15 82 82 82 82 82 82 82 82 82 82 82 82 82 82 82 82 82 
76 76 76 76 76 76 76 76 76 76 76 76 76 25 25 25 25 25 25 98 
15 15 15 82 82 82 82 82 82 82 82 82 82 82 82 82 82 82 82 82 
76 76 76 76 76 76 76 76 76 76 76 76 76 25 25 25 25 25 98 98 
15 15 15 82 82 82 82 82 82 82 82 82 82 82 82 82 82 82 82 82 
82 76 76 76 76 76 76 76 76 76 76 76 25 25 93 93 93 25 98 98 
15 15 82 82 82 82 82 82 82 82 82 82 82 82 82 82 82 82 82 82 
82 76 76 76 76 76 76 76 76 76 76 76 25 93 93 93 93 98 98 98 
15 15 82 82 82 82 82 82 82 82 82 82 82 82 82 82 82 82 82 82 
24 24 24 76 76 76 76 76 76 76 76 76 25 93 93 93 93 98 98 98 
15 15 82 82 82 82 82 82 82 82 82 82 82 82 82 82 82 82 82 82 
24 24 24 24 76 76 76 76 76 76 76 76 25 93 93 93 93 98 98 98 
15 15 82 82 82 82 82 82 82 82 82 82 82 82 82 82 82 82 82 82 
24 24 24 24 76 76 76 76 76 76 76 25 25 93 93 93 93 98 98 98 
15 82 82 82 82 82 82 82 82 82 82 82 82 82 82 82 82 82 82 82 
24 24 24 24 24 24 76 76 76 76 76 25 25 93 93 93 93 25 98 98 
15 82 82 82 82 82 82 82 82 82 82 82 82 82 82 82 82 82 82 24 
24 24 24 24 24 24 24 76 76 76 76 25 25 93 93 93 93 25 98 98 
82 82 82 82 82 82 82 82 82 82 82 82 82 82 82 82 82 82 82 24 
24 24 24 24 24 24 24 24 24 76 25 25 25 93 93 93 93 25 25 25 
82 82 82 82 82 82 82 82 82 82 82 82 82 82 82 82 82 82 82 24 
24 24 24 24 24 24 24 24 24 24 25 25 25 93 93 93 25 25 25 25 
82 82 82 82 82 82 82 82 82 82 82 82 82 82 82 82 82 69 69 24 
24 24 24 24 24 24 24 24 24 24 25 25 25 25 25 25 25 25 25 25 
82 82 82 82 82 82 82 82 82 82 82 82 82 82 82 82 82 69 69 24 
24 24 24 24 24 24 24 24 24 24 25 25 25 25 25 25 25 25 25 25 
82 82 82 82 82 82 82 82 82 82 82 82 82 82 82 82 82 69 69 24 
24 24 24 24 24 24 24 24 24 24 25 25 25 25 25 25 25 25 25 25 
82 82 82 82 82 82 82 82 82 82 82 82 82 82 82 82 69 69 69 24 
24 24 24 24 24 24 24 24 24 24 25 25 25 25 25 25 25 25 25 25 
82 82 82 82 82 82 82 82 82 82 82 82 82 82 82 69 69 69 69 24 
24 24 24 24 24 24 24 24 24 24 25 25 25 25 25 25 25 25 25 25 
20 20 20 20 20 20 20 20 20 48 48 48 48 48 48 48 48 48 48 48 
48 48 83 83 83 83 83 83 83 83 83 1 1 1 1 1 1 1 1 1 
20 20 20 20 20 20 20 20 20 48 48 48 48 48 48 48 48 48 48 48 
48 48 83 83 83 83 83 83 83 83 1 1 1 1 1 1 1 1 1 1 
20 20 20 20 20 20 20 20 20 48 48 48 48 48 48 48 48 48 48 48 
48 48 83 83 83 83 83 83 83 83 1 1 1 1 1 1 1 1 1 1 
20 20 20 20 20 20 20 20 20 48 48 48 48 48 48 48 48 48 48 48 
48 48 83 83 83 83 83 83 83 83 83 1 1 1 1 1 1 1 1 1 
20 20 20 20 20 20 20 20 20 48 48 48 48 48 48 48 48 48 48 48 
48 48 83 83 83 83 83 83 83 83 83 1 1 1 1 1 1 1 1 1 
20 20 20 20 20 20 20 20 20 48 48 48 48 48 48 48 48 48 48 48 
48 48 83 83 83 83 83 83 83 83 83 1 1 1 1 1 1 1 1 1 
20 20 20 20 20 20 20 20 20 48 48 48 48 48 48 48 48 48 48 48 
48 83 83 83 83 83 83 83 83 83 83 1 1 1 1 1 1 1 1 1 
20 20 20 20 20 20 20 20 48 48 48 48 48 48 48 48 48 48 48 48 
48 83 83 83 83 83 83 83 83 83 83 1 1 1 1 1 1 1 1 1 
20 20 20 20 20 20 20 20 48 48 48 48 48 48 48 48 48 48 48 48 
48 83 83 83 83 83 83 83 83 83 83 1 1 1 1 1 1 1 1 1 
20 20 20 20 20 20 20 20 48 48 48 48 48 48 48 48 48 48 48 48 
48 83 83 83 83 83 83 83 83 83 83 1 1 1 1 1 1 1 1 1 
20 20 20 20 20 20 20 20 48 48 48 48 48 48 48 48 48 48 48 48 
48 83 83 83 83 83 83 83 83 83 83 1 1 1 1 1 1 1 1 1 
20 20 20 20 20 20 20 20 48 48 48 48 48 48 48 48 48 48 48 48 
83 83 83 83 83 83 83 83 83 83 83 1 1 1 1 1 1 1 1 1 
20 20 20 20 20 20 20 20 48 48 48 48 48 48 48 48 48 48 48 48 
83 83 83 83 83 83 83 83 83 83 83 1 1 1 1 1 1 1 1 1 
20 20 20 20 20 20 20 20 48 48 48 48 48 48 48 48 48 48 48 48 
83 83 83 83 83 83 83 83 83 83 83 1 1 1 1 1 1 1 1 1 
20 20 20 20 20 20 20 20 48 48 48 48 48 48 48 48 48 48 48 48 
83 83 83 83 83 83 83 83 83 83 83 1 1 1 1 1 1 1 1 1 
20 20 20 20 20 20 20 20 48 48 48 48 48 48 48 48 48 48 48 48 
83 83 83 83 83 83 83 83 83 83 83 1 1 1 1 1 1 1 1 1 
20 20 20 20 20 20 20 20 48 48 48 48 48 48 48 48 48 48 48 48 
83 83 83 83 83 83 83 83 83 83 83 1 1 1 1 1 1 1 1 1 
20 20 20 20 20 20 20 48 48 48 48 48 48 48 48 48 48 48 48 48 
83 83 83 83 83 83 83 83 83 83 83 1 1 1 1 1 1 1 1 1 
20 20 20 20 20 20 20 48 48 48 48 48 48 48 48 48 48 48 48 83 
83 83 83 83 83 83 83 83 83 83 83 1 1 1 1 1 1 1 1 71 
20 20 20 20 20 20 20 48 48 48 48 48 48 48 48 48 48 48 48 83 
83 83 83 83 83 83 83 83 83 83 83 1 1 1 1 1 1 1 1 71 
20 20 20 20 20 20 20 48 48 48 48 48 48 48 48 48 48 48 48 83 
83 83 83 83 83 83 83 83 83 83 83 1 1 1 1 1 1 1 1 71 
20 20 20 20 20 20 20 48 48 48 48 48 48 48 48 48 48 48 48 83 
83 83 83 83 83 83 83 83 83 83 1 1 1 1 1 1 1 1 71 71 
20 20 20 20 20 20 20 48 48 48 48 48 48 48 48 48 48 48 48 83 
83 83 83 83 83 83 83 83 83 83 1 1 1 1 1 1 1 1 71 71 
20 20 20 20 20 20 15 48 48 48 48 48 48 48 48 48 48 48 48 83 
83 83 83 83 83 83 83 83 83 83 1 1 1 1 1 1 1 1 71 71 
20 20 20 20 20 20 15 48 48 48 48 48 48 48 48 48 48 48 48 83 
83 83 83 83 83 83 83 83 83 83 1 1 1 1 1 1 1 1 71 71 
20 20 20 20 20 15 15 48 48 48 48 48 48 48 48 48 48 48 48 83 
83 83 83 83 83 83 83 83 83 83 1 1 1 1 1 1 1 1 71 71 
20 20 20 20 20 15 15 48 48 48 48 48 48 48 48 48 48 48 48 83 
83 83 83 83 83 83 83 83 83 83 1 1 1 1 1 1 1 71 71 71 
20 20 20 20 15 15 15 15 48 48 48 48 48 48 48 48 48 48 48 83 
83 83 83 83 83 83 83 83 83 83 1 1 1 1 1 1 1 71 71 161 
20 20 20 15 15 15 15 15 48 48 48 48 48 48 48 48 48 48 48 83 
83 83 83 83 83 83 83 83 83 83 1 1 1 1 1 1 1 71 71 161 
20 20 20 15 15 15 15 15 48 48 48 48 48 48 48 48 48 48 83 83 
83 83 83 83 83 83 83 83 83 83 1 1 1 1 1 1 1 71 161 161 
20 20 15 15 15 15 15 15 48 48 48 48 48 48 48 48 48 48 83 83 
83 83 83 83 83 83 83 83 83 83 1 1 1 1 1 1 1 71 161 161 
20 15 15 15 15 15 15 15 48 48 48 48 48 48 48 48 48 48 83 83 
83 83 83 83 83 83 83 83 83 1 1 1 1 1 1 1 1 71 161 161 
20 15 15 15 15 15 15 15 48 48 48 48 48 48 48 48 48 48 83 83 
83 83 83 83 83 83 83 83 83 1 1 1 1 1 1 1 1 71 161 71 
15 15 15 15 15 15 15 15 48 48 48 48 48 48 48 48 48 48 83 83 
83 83 83 83 83 83 83 83 83 1 1 1 1 1 1 1 1 71 161 71 
15 15 15 15 15 15 15 15 48 48 48 48 48 48 48 48 48 48 83 83 
83 83 83 83 83 83 83 83 83 1 1 1 1 1 1 1 1 71 71 71 
15 15 15 15 15 15 15 15 48 48 48 48 48 48 48 48 48 48 83 83 
83 83 83 83 83 83 83 83 83 1 1 1 1 1 1 1 1 71 71 71 
15 15 15 15 15 15 15 15 48 48 48 48 48 48 48 48 48 48 83 83 
83 83 83 83 83 83 83 83 76 76 1 1 1 1 1 1 1 71 71 71 
15 15 15 15 15 15 15 15 48 48 48 48 48 48 48 48 48 48 83 83 
83 148 148 83 83 83 83 83 76 76 76 1 1 1 1 1 1 71 71 71 
15 15 15 15 15 15 15 15 48 48 48 48 48 48 48 48 48 48 83 83 
83 148 148 83 83 83 83 76 76 76 76 76 1 1 1 1 1 1 71 71 
15 15 15 15 15 15 15 15 48 48 48 48 48 48 48 48 48 48 83 83 
148 148 148 83 83 83 76 76 76 76 76 76 1 1 1 1 1 1 71 71 
15 15 15 15 15 15 15 15 48 48 48 48 48 48 48 48 48 48 48 83 
148 148 148 148 83 76 76 76 76 76 76 76 76 1 1 1 1 1 25 25 
15 15 15 15 15 15 15 15 48 48 48 48 48 48 48 82 82 82 82 148 
148 148 148 148 76 76 76 76 76 76 76 76 76 76 1 1 1 71 25 25 
15 15 15 15 15 15 15 15 48 48 48 48 48 48 82 82 82 82 148 148 
148 148 148 148 76 76 76 76 76 76 76 76 76 76 76 1 1 25 25 25 
15 15 15 15 15 15 15 15 15 48 48 48 48 82 82 82 82 82 148 148 
148 148 148 148 148 76 76 76 76 76 76 76 76 76 76 1 1 25 25 25 
15 15 15 15 15 15 15 15 15 48 48 48 82 82 82 82 82 82 82 148 
148 148 148 148 148 76 76 76 76 76 76 76 76 76 76 76 76 25 25 25 
15 15 15 15 15 15 15 15 15 15 82 82 82 82 82 82 82 82 82 148 
148 148 148 148 76 76 76 76 76 76 76 76 76 76 76 76 25 25 25 25 
15 15 15 15 15 15 15 15 15 15 82 82 82 82 82 82 82 82 82 148 
148 148 148 76 76 76 76 76 76 76 76 76 76 76 76 76 25 25 25 25 
15 15 15 15 15 15 15 15 15 81 82 82 82 82 82 82 82 82 82 82 
148 148 148 76 76 76 76 76 76 76 76 76 76 76 76 76 25 25 25 25 
15 15 15 15 15 15 15 15 15 82 82 82 82 82 82 82 82 82 82 82 
148 148 76 76 76 76 76 76 76 76 76 76 76 76 76 76 25 25 25 25 
15 15 15 15 15 15 15 15 82 82 82 82 82 82 82 82 82 82 82 82 
148 148 76 76 76 76 76 76 76 76 76 76 76 76 76 76 25 25 25 25 
15 15 15 15 15 15 15 15 82 82 82 82 82 82 82 82 82 82 82 82 
76 76 76 76 76 76 76 76 76 76 76 76 76 76 76 25 25 25 25 25 
15 15 15 15 15 15 15 15 82 82 82 82 82 82 82 82 82 82 82 82 
76 76 76 76 76 76 76 76 76 76 76 76 76 76 76 25 25 25 25 25 
15 15 15 15 15 15 15 82 82 82 82 82 82 82 82 82 82 82 82 82 
76 76 76 76 76 76 76 76 76 76 76 76 76 76 76 25 25 25 25 25 
15 15 15 15 15 15 15 82 82 82 82 82 82 82 82 82 82 82 82 82 
76 76 76 76 76 76 76 76 76 76 76 76 76 76 76 25 25 25 25 25 
15 15 15 15 15 15 82 82 82 82 82 82 82 82 82 82 82 82 82 82 
76 76 76 76 76 76 76 76 76 76 76 76 76 76 76 25 25 25 25 25 
15 15 15 15 15 15 82 82 82 82 82 82 82 82 82 82 82 82 82 82 
76 76 76 76 76 76 76 76 76 76 76 76 76 76 25 25 25 25 25 25 
15 15 15 15 15 15 82 82 82 82 82 82 82 82 82 82 82 82 82 82 
76 76 76 76 76 76 76 76 76 76 76 76 76 76 25 25 25 25 25 25 
15 15 15 15 15 82 82 82 82 82 82 82 82 82 82 82 82 82 82 82 
76 76 76 76 76 76 76 76 76 76 76 76 76 76 25 25 25 25 25 25 
15 15 15 15 15 82 82 82 82 82 82 82 82 82 82 82 82 82 82 82 
76 76 76 76 76 76 76 76 76 76 76 76 76 76 25 25 25 25 25 25 
15 15 15 15 15 82 82 82 82 82 82 82 82 82 82 82 82 82 82 82 
76 76 76 76 76 76 76 76 76 76 76 76 76 76 25 25 25 25 25 25 
15 15 15 15 82 82 82 82 82 82 82 82 82 82 82 82 82 82 82 82 
76 76 76 76 76 76 76 76 76 76 76 76 76 25 25 25 25 25 25 25 
15 15 15 15 82 82 82 82 82 82 82 82 82 82 82 82 82 82 82 82 
76 76 76 76 76 76 76 76 76 76 76 76 76 25 25 25 25 25 25 25 
15 15 15 15 82 82 82 82 82 82 82 82 82 82 82 82 82 82 82 82 
76 76 76 76 76 76 76 76 76 76 76 76 76 25 25 25 25 25 25 98 
15 15 15 82 82 82 82 82 82 82 82 82 82 82 82 82 82 82 82 82 
76 76 76 76 76 76 76 76 76 76 76 76 76 25 25 25 25 25 25 98 
15 15 15 82 82 82 82 82 82 82 82 82 82 82 82 82 82 82 82 82 
76 76 76 76 76 76 76 76 76 76 76 76 25 25 25 25 25 25 25 98 
15 15 15 82 82 82 82 82 82 82 82 82 82 82 82 82 82 82 82 82 
24 24 24 24 76 76 76 76 76 76 76 76 25 25 25 25 25 25 98 98 
15 15 82 82 82 82 82 82 82 82 82 82 82 82 82 82 82 82 82 82 
24 24 24 24 76 76 76 76 76 76 76 76 25 93 93 93 93 25 98 98 
15 15 82 82 82 82 82 82 82 82 82 82 82 82 82 82 82 82 82 82 
24 24 24 24 24 24 76 76 76 76 76 76 25 93 93 93 93 25 98 98 
15 15 82 82 82 82 82 82 82 82 82 82 82 82 82 82 82 82 82 82 
24 24 24 24 24 24 24 24 76 76 76 25 25 93 93 93 93 98 98 98 
15 15 82 82 82 82 82 82 82 82 82 82 82 82 82 82 82 82 82 24 
24 147 147 24 24 24 24 24 24 76 76 25 25 93 93 93 93 25 98 98 
15 15 82 82 82 82 82 82 82 82 82 82 82 82 82 82 82 82 82 24 
24 147 147 147 147 24 24 24 24 24 76 25 25 93 93 93 93 25 98 98 
15 82 82 82 82 82 82 82 82 82 82 82 82 82 82 82 82 82 69 69 
24 147 147 147 147 24 24 24 24 24 25 25 25 93 93 93 93 25 25 98 
15 82 82 82 82 82 82 82 82 82 82 82 82 82 82 82 82 69 69 24 
24 147 147 147 147 24 24 24 24 24 24 25 25 93 93 93 93 25 25 25 
82 82 82 82 82 82 82 82 82 82 82 82 82 82 82 82 82 69 69 24 
24 147 147 147 147 24 24 24 24 24 24 25 25 93 93 93 93 25 25 25 
82 82 82 82 82 82 82 82 82 82 82 82 82 82 82 82 69 69 69 24 
24 147 147 147 24 24 24 24 24 24 24 25 25 25 93 93 25 25 25 25 
82 82 82 82 82 82 82 82 82 82 82 82 82 82 82 82 69 69 69 24 
24 147 147 147 24 24 24 24 24 24 24 25 25 25 25 25 25 25 25 25 
82 82 82 82 82 82 82 82 82 82 82 82 82 82 82 82 69 69 69 24 
24 147 147 147 24 24 24 24 24 24 24 25 25 25 25 25 25 25 25 25 
82 82 82 82 82 82 82 82 82 82 82 82 82 82 82 69 69 69 69 24 
147 147 147 147 24 24 24 24 24 24 24 25 25 25 25 25 25 25 25 25 
82 82 82 82 82 82 82 82 82 82 82 82 82 82 69 69 69 69 69 24 
147 147 147 147 24 24 24 24 24 24 24 25 25 25 25 25 25 25 25 25 
82 82 82 82 82 82 82 82 82 82 82 82 82 82 69 69 69 69 69 24 
24 24 24 24 24 24 24 24 24 24 24 25 25 25 25 25 25 25 25 25 
20 20 20 20 20 20 20 20 20 48 48 48 48 48 48 48 48 48 48 48 
48 48 83 83 83 83 83 83 83 83 83 1 1 1 1 1 1 1 1 1 
20 20 20 20 20 20 20 20 20 48 48 48 48 48 48 48 48 48 48 48 
48 48 83 83 83 83 83 83 83 83 83 1 1 1 1 1 1 1 1 1 
20 20 20 20 20 20 20 20 20 48 48 48 48 48 48 48 48 48 48 48 
48 48 83 83 83 83 83 83 83 83 83 1 1 1 1 1 1 1 1 1 
20 20 20 20 20 20 20 20 20 48 48 48 48 48 48 48 48 48 48 48 
48 83 83 83 83 83 83 83 83 83 83 1 1 1 1 1 1 1 1 1 
20 20 20 20 20 20 20 20 20 48 48 48 48 48 48 48 48 48 48 48 
48 83 83 83 83 83 83 83 83 83 83 1 1 1 1 1 1 1 1 1 
20 20 20 20 20 20 20 20 20 48 48 48 48 48 48 48 48 48 48 48 
48 83 83 83 83 83 83 83 83 83 83 1 1 1 1 1 1 1 1 1 
20 20 20 20 20 20 20 20 20 48 48 48 48 48 48 48 48 48 48 48 
48 83 83 83 83 83 83 83 83 83 83 1 1 1 1 1 1 1 1 1 
20 20 20 20 20 20 20 20 20 48 48 48 48 48 48 48 48 48 48 48 
48 83 83 83 83 83 83 83 83 83 83 1 1 1 1 1 1 1 1 1 
20 20 20 20 20 20 20 20 20 48 48 48 48 48 48 48 48 48 48 48 
48 83 83 83 83 83 83 83 83 83 83 1 1 1 1 1 1 1 1 1 
20 20 20 20 20 20 20 20 20 48 48 48 48 48 48 48 48 48 48 48 
48 83 83 83 83 83 83 83 83 83 83 1 1 1 1 1 1 1 1 1 
20 20 20 20 20 20 20 20 48 48 48 48 48 48 48 48 48 48 48 48 
83 83 83 83 83 83 83 83 83 83 83 1 1 1 1 1 1 1 1 1 
20 20 20 20 20 20 20 20 48 48 48 48 48 48 48 48 48 48 48 48 
83 83 83 83 83 83 83 83 83 83 83 1 1 1 1 1 1 1 1 1 
20 20 20 20 20 20 20 20 48 48 48 48 48 48 48 48 48 48 48 48 
83 83 83 83 83 83 83 83 83 83 83 1 1 1 1 1 1 1 1 1 
20 20 20 20 20 20 20 20 48 48 48 48 48 48 48 48 48 48 48 48 
83 83 83 83 83 83 83 83 83 83 83 1 1 1 1 1 1 1 1 1 
20 20 20 20 20 20 20 20 48 48 48 48 48 48 48 48 48 48 48 48 
83 83 83 83 83 83 83 83 83 83 83 1 1 1 1 1 1 1 1 1 
20 20 20 20 20 20 20 20 48 48 48 48 48 48 48 48 48 48 48 48 
83 83 83 83 83 83 83 83 83 83 83 1 1 1 1 1 1 1 1 1 
20 20 20 20 20 20 20 20 48 48 48 48 48 48 48 48 48 48 48 48 
83 83 83 83 83 83 83 83 83 83 83 1 1 1 1 1 1 1 1 1 
20 20 20 20 20 20 20 20 48 48 48 48 48 48 48 48 48 48 48 83 
83 83 83 83 83 83 83 83 83 83 83 1 1 1 1 1 1 1 1 1 
20 20 20 20 20 20 20 20 48 48 48 48 48 48 48 48 48 48 48 83 
83 83 83 83 83 83 83 83 83 83 83 1 1 1 1 1 1 1 1 1 
20 20 20 20 20 20 20 48 48 48 48 48 48 48 48 48 48 48 48 83 
83 83 83 83 83 83 83 83 83 83 83 1 1 1 1 1 1 1 1 1 
20 20 20 20 20 20 20 48 48 48 48 48 48 48 48 48 48 48 48 83 
83 83 83 83 83 83 83 83 83 83 1 1 1 1 1 1 1 1 1 71 
20 20 20 20 20 20 20 48 48 48 48 48 48 48 48 48 48 48 48 83 
163 163 163 83 83 83 83 83 83 83 1 1 1 1 1 1 1 1 1 71 
20 20 20 20 20 20 20 48 48 48 48 48 48 48 48 48 48 48 48 83 
163 163 163 83 83 83 83 83 83 83 1 1 1 1 1 1 1 1 1 71 
20 20 20 20 20 20 15 48 48 48 48 48 48 48 48 48 48 48 48 83 
83 83 83 83 83 83 83 83 83 83 1 1 1 1 1 1 1 1 71 71 
20 20 20 20 20 20 15 48 48 48 48 48 48 48 48 48 48 48 48 83 
83 83 83 83 83 83 83 83 83 83 1 1 1 1 1 1 1 1 71 71 
20 20 20 20 20 15 15 15 48 48 48 48 48 48 48 48 48 48 48 83 
83 83 83 83 83 83 83 83 83 83 1 1 1 1 1 1 1 1 71 161 
20 20 20 20 15 15 15 15 48 48 48 48 48 48 48 48 48 48 48 83 
83 83 83 83 83 83 83 83 83 83 1 1 1 1 1 1 1 1 71 161 
20 20 20 20 15 15 15 15 48 48 48 48 48 48 48 48 48 48 48 83 
83 83 83 83 83 83 83 83 83 83 1 1 1 1 1 1 1 71 161 161 
20 20 20 15 15 15 15 15 48 48 48 48 48 48 48 48 48 48 83 83 
83 83 83 83 83 83 83 83 83 1 1 1 1 1 1 1 1 161 161 161 
20 20 15 15 15 15 15 15 48 48 48 48 48 48 48 48 48 48 83 83 
83 83 83 83 83 83 83 83 83 1 1 1 1 1 1 1 161 161 161 161 
20 20 15 15 15 15 15 15 48 48 48 48 48 48 48 48 48 48 83 83 
83 83 83 83 83 83 83 83 83 1 1 1 106 106 106 1 161 161 161 161 
20 15 15 15 15 15 15 15 48 48 48 48 48 48 48 48 48 48 83 83 
83 83 83 83 83 83 83 83 83 1 1 1 106 106 106 1 161 161 161 161 
15 15 15 15 15 15 15 15 48 48 48 48 48 48 48 48 48 48 83 83 
83 83 83 83 83 83 83 83 83 1 1 1 106 106 106 1 161 161 161 161 
15 15 15 15 15 15 15 15 48 48 48 48 48 48 48 48 48 48 83 83 
83 83 83 83 83 83 83 83 83 1 1 1 106 106 106 1 1 161 161 161 
15 15 15 15 15 15 15 15 48 48 48 48 48 48 48 48 48 48 83 83 
83 83 83 83 83 83 83 83 76 76 1 1 106 106 106 1 1 161 161 161 
15 15 15 15 15 15 15 15 48 48 48 48 48 48 48 48 48 48 83 83 
83 83 83 83 83 83 83 76 76 76 76 1 106 106 106 1 1 161 161 71 
15 15 15 15 15 15 15 15 48 48 48 48 48 48 48 48 48 48 83 83 
83 83 83 83 83 83 83 76 76 76 76 1 106 106 106 1 161 161 161 71 
15 15 15 15 15 15 15 15 48 48 48 48 48 48 48 48 48 48 83 83 
83 83 83 83 83 83 76 76 76 76 76 76 106 106 1 1 1 161 71 71 
15 15 15 15 15 15 15 15 48 48 48 48 48 48 48 48 81 81 81 83 
83 83 83 83 83 83 76 76 76 76 76 76 76 106 1 1 1 161 71 71 
15 15 15 15 15 15 15 15 48 48 48 48 48 48 48 48 81 81 81 83 
83 148 83 83 83 76 76 76 76 76 76 76 76 1 1 1 1 161 71 71 
15 15 15 15 15 15 15 15 48 48 48 48 48 48 81 81 82 82 82 82 
76 148 148 76 76 76 76 76 76 76 76 76 76 76 1 1 1 71 71 71 
15 15 15 15 15 15 15 15 48 48 48 48 48 48 81 82 82 82 82 76 
148 148 148 76 76 76 76 76 76 76 76 76 76 76 1 1 1 71 71 25 
15 15 15 15 15 15 15 15 15 48 48 48 81 81 82 82 82 82 82 76 
148 148 148 76 76 76 76 76 76 76 76 76 76 76 76 1 1 25 25 25 
15 15 15 15 15 15 15 15 15 48 48 81 81 82 82 82 82 82 82 148 
148 148 148 148 76 76 76 76 76 76 76 76 76 76 76 76 1 25 25 25 
15 15 15 15 15 15 15 15 15 81 81 82 82 82 82 82 82 82 82 148 
148 148 148 148 76 76 76 76 76 76 76 76 76 76 76 76 25 25 25 25 
15 15 15 15 15 15 15 15 15 81 82 82 82 82 82 82 82 82 82 82 
148 148 148 76 76 76 76 76 76 76 76 76 76 76 76 76 25 25 25 25 
15 15 15 15 15 15 15 15 81 81 82 82 82 82 82 82 82 82 82 82 
148 148 148 76 76 76 76 76 76 76 76 76 76 76 76 76 25 25 25 25 
15 15 15 15 15 15 15 15 81 81 82 82 82 82 82 82 82 82 82 82 
148 148 148 76 76 76 76 76 76 76 76 76 76 76 76 76 25 25 25 25 
15 15 15 15 15 15 15 15 81 82 82 82 82 82 82 82 82 82 82 82 
148 148 76 76 76 76 76 76 76 76 76 76 76 76 76 76 25 25 25 25 
15 15 15 15 15 15 15 15 82 82 82 82 82 82 82 82 82 82 82 82 
148 148 76 76 76 76 76 76 76 76 76 76 76 76 76 25 25 25 25 25 
15 15 15 15 15 15 15 82 82 82 82 82 82 82 82 82 82 82 82 82 
148 76 76 76 76 76 76 76 76 76 76 76 76 76 76 25 25 25 25 25 
15 15 15 15 15 15 15 82 82 82 82 82 82 82 82 82 82 82 82 82 
148 76 76 76 76 76 76 76 76 76 76 76 76 76 76 25 25 25 25 25 
15 15 15 15 15 15 15 82 82 82 82 82 82 82 82 82 82 82 82 82 
76 76 76 76 76 76 76 76 76 76 76 76 76 76 76 25 25 25 25 25 
15 15 15 15 15 15 82 82 82 82 82 82 82 82 82 82 82 82 82 82 
76 76 76 76 76 76 76 76 76 76 76 76 76 76 76 25 25 25 25 25 
15 15 15 15 15 15 82 82 82 82 82 82 82 82 82 82 82 82 82 82 
82 76 76 76 76 76 76 76 76 76 76 76 76 76 76 25 25 25 25 25 
15 15 15 15 15 81 82 82 82 82 82 82 82 82 82 82 82 82 82 82 
82 76 76 76 76 76 76 76 76 76 76 76 76 76 25 25 25 25 25 25 
15 15 15 15 15 82 82 82 82 82 82 82 82 82 82 82 82 82 82 82 
82 76 76 76 76 76 76 76 76 76 76 76 76 76 25 25 25 25 25 25 
15 15 15 15 15 82 82 82 82 82 82 82 82 82 82 82 82 82 82 82 
82 76 76 76 76 76 76 76 76 76 76 76 76 76 25 25 25 25 25 25 
15 15 15 15 81 128 128 128 82 82 82 82 82 82 82 82 82 82 82 82 
82 76 76 76 76 76 76 76 76 76 76 76 76 76 25 25 25 25 25 25 
15 15 15 15 81 128 128 128 82 82 82 82 82 82 82 82 82 82 82 82 
82 76 76 76 76 76 76 76 76 76 76 76 76 25 25 25 25 25 25 25 
15 15 15 15 82 128 128 128 82 82 82 82 82 82 82 82 82 82 82 82 
82 76 76 76 76 76 76 76 76 76 76 76 76 25 25 25 25 25 25 25 
15 15 15 81 82 128 128 128 82 82 82 82 82 82 82 82 82 82 82 82 
82 76 76 76 76 76 76 76 76 76 76 76 76 25 25 25 25 25 25 25 
15 15 15 81 82 128 128 128 82 82 82 82 82 82 82 82 82 82 82 82 
82 24 24 24 76 76 76 76 76 76 76 76 76 25 25 25 25 25 25 25 
15 15 15 82 128 128 128 128 82 82 82 82 82 82 82 82 82 82 82 82 
24 24 24 24 24 24 76 76 76 76 76 76 25 25 25 25 25 25 25 25 
15 15 15 82 128 128 128 128 82 82 82 82 82 82 82 82 82 82 82 82 
24 24 24 24 24 24 24 24 76 76 76 76 25 25 25 25 25 25 25 25 
15 15 81 82 128 128 128 128 82 82 82 82 82 82 82 82 82 82 82 82 
24 24 24 24 24 24 24 24 24 24 76 76 25 25 25 25 25 25 25 25 
15 15 81 82 128 128 128 128 82 82 82 82 82 82 82 82 82 82 82 82 
24 24 24 24 24 24 24 24 24 24 24 25 25 25 93 93 93 25 25 98 
15 15 82 82 82 82 82 82 82 82 82 82 82 82 82 82 82 82 82 82 
24 24 24 24 24 24 24 24 24 24 24 25 25 25 93 93 93 25 25 98 
15 15 82 82 82 82 82 82 82 82 82 82 82 82 82 82 82 82 82 24 
24 24 24 24 24 24 24 24 24 24 24 25 25 25 93 93 93 25 25 98 
15 15 82 82 82 82 82 82 82 82 82 82 82 82 82 82 82 69 69 24 
24 147 24 24 24 24 24 24 24 24 24 25 25 25 93 93 93 25 25 98 
15 82 82 82 82 82 82 82 82 82 82 82 82 82 82 82 69 69 69 24 
24 147 147 147 147 24 24 24 24 24 24 25 25 25 25 93 25 25 25 98 
15 82 82 82 82 82 82 82 82 82 82 82 82 82 82 82 69 69 69 69 
24 147 147 147 147 24 24 24 24 24 24 25 25 25 25 25 25 25 25 25 
82 82 82 82 82 82 82 82 82 82 82 82 82 82 82 82 69 69 69 24 
24 147 147 147 147 24 24 24 24 24 24 25 25 25 25 25 25 25 25 25 