# vtk DataFile Version 2.0
data set from DREAM3D
ASCII
DATASET RECTILINEAR_GRID
DIMENSIONS 62 82 62
X_COORDINATES 62 float
-0.375000 0.375000 1.125000 1.875000 2.625000 3.375000 4.125000 4.875000 5.625000 6.375000 7.125000 7.875000 8.625000 9.375000 10.125000 10.875000 11.625000 12.375000 13.125000 13.875000 14.625000 
15.375000 16.125000 16.875000 17.625000 18.375000 19.125000 19.875000 20.625000 21.375000 22.125000 22.875000 23.625000 24.375000 25.125000 25.875000 26.625000 27.375000 28.125000 28.875000 29.625000 
30.375000 31.125000 31.875000 32.625000 33.375000 34.125000 34.875000 35.625000 36.375000 37.125000 37.875000 38.625000 39.375000 40.125000 40.875000 41.625000 42.375000 43.125000 43.875000 44.625000 
45.375000 
Y_COORDINATES 82 float
-0.375000 0.375000 1.125000 1.875000 2.625000 3.375000 4.125000 4.875000 5.625000 6.375000 7.125000 7.875000 8.625000 9.375000 10.125000 10.875000 11.625000 12.375000 13.125000 13.875000 14.625000 
15.375000 16.125000 16.875000 17.625000 18.375000 19.125000 19.875000 20.625000 21.375000 22.125000 22.875000 23.625000 24.375000 25.125000 25.875000 26.625000 27.375000 28.125000 28.875000 29.625000 
30.375000 31.125000 31.875000 32.625000 33.375000 34.125000 34.875000 35.625000 36.375000 37.125000 37.875000 38.625000 39.375000 40.125000 40.875000 41.625000 42.375000 43.125000 43.875000 44.625000 
45.375000 46.125000 46.875000 47.625000 48.375000 49.125000 49.875000 50.625000 51.375000 52.125000 52.875000 53.625000 54.375000 55.125000 55.875000 56.625000 57.375000 58.125000 58.875000 59.625000 
60.375000 
Z_COORDINATES 62 float
-0.375000 0.375000 1.125000 1.875000 2.625000 3.375000 4.125000 4.875000 5.625000 6.375000 7.125000 7.875000 8.625000 9.375000 10.125000 10.875000 11.625000 12.375000 13.125000 13.875000 14.625000 
15.375000 16.125000 16.875000 17.625000 18.375000 19.125000 19.875000 20.625000 21.375000 22.125000 22.875000 23.625000 24.375000 25.125000 25.875000 26.625000 27.375000 28.125000 28.875000 29.625000 
30.375000 31.125000 31.875000 32.625000 33.375000 34.125000 34.875000 35.625000 36.375000 37.125000 37.875000 38.625000 39.375000 40.125000 40.875000 41.625000 42.375000 43.125000 43.875000 44.625000 
45.375000 
CELL_DATA 301401
SCALARS FeatureIds int 1
LOOKUP_TABLE default
19 19 19 19 19 19 19 19 19 19 19 19 19 19 19 19 19 19 19 19 
19 19 19 19 19 19 7 7 7 7 7 7 7 7 7 7 7 7 7 7 
7 7 7 31 31 31 31 31 31 31 31 31 31 31 31 31 31 31 31 31 
31 19 19 19 19 19 19 19 19 19 19 19 19 19 19 19 19 19 19 19 
19 19 19 19 19 19 19 7 7 7 7 7 7 7 7 7 7 7 7 7 
7 7 7 7 31 31 31 31 31 31 31 31 31 31 31 31 31 31 31 31 
31 31 19 19 19 19 19 19 19 19 19 19 19 19 19 19 19 19 19 19 
19 19 19 19 19 19 19 7 7 7 7 7 7 7 7 7 7 7 7 7 
7 7 7 7 7 31 31 31 31 31 31 31 31 31 31 31 31 31 31 31 
31 31 31 19 19 19 19 19 19 19 19 19 19 19 19 19 19 19 19 19 
19 19 19 19 19 19 19 19 7 7 7 7 7 7 7 7 7 7 7 7 
7 7 7 7 7 7 31 31 31 31 31 31 31 31 31 31 31 31 31 31 
31 31 31 31 19 19 19 19 19 19 19 19 19 19 19 19 19 19 19 19 
19 19 19 19 19 19 19 19 19 7 7 7 7 7 7 7 7 7 7 7 
7 7 7 7 7 7 7 31 31 31 31 31 31 31 31 31 31 31 31 31 
31 31 31 31 31 19 19 19 19 19 19 19 19 19 19 19 19 19 19 19 
19 19 19 19 19 19 19 19 19 19 7 7 7 7 7 7 7 7 7 7 
7 7 7 7 7 7 7 7 31 31 31 31 31 31 31 31 31 31 31 31 
31 31 31 31 31 31 19 19 19 19 19 19 19 19 19 19 19 19 19 19 
19 19 19 19 19 19 19 19 19 19 19 7 7 7 7 7 7 7 7 7 
7 7 7 7 7 7 7 7 7 31 31 31 31 31 31 31 31 31 31 31 
31 31 31 31 31 31 31 14 14 19 19 19 19 19 19 19 19 19 19 19 
19 19 19 19 19 19 19 19 19 19 19 7 7 7 7 7 7 7 7 7 
7 7 7 7 7 7 7 7 7 7 31 31 31 31 31 31 31 31 31 31 
31 31 31 31 31 31 31 31 14 14 14 19 19 19 19 19 19 19 19 19 
19 19 19 19 19 19 19 19 19 19 19 19 7 7 7 7 7 7 7 7 
7 7 7 7 7 7 7 7 7 7 7 31 31 31 31 31 31 31 31 31 
31 31 31 31 31 31 31 31 31 14 14 14 14 19 19 19 19 19 19 19 
19 19 19 19 19 19 19 19 15 15 19 19 19 7 7 7 7 7 7 7 
7 7 7 7 7 7 7 7 7 7 7 7 31 31 31 31 31 31 31 31 
31 31 31 31 31 31 31 31 31 31 14 14 14 14 19 19 19 19 19 19 
19 19 19 19 19 19 19 19 15 15 15 15 15 15 7 7 7 7 7 7 
7 7 7 7 7 7 7 7 7 7 7 7 7 31 31 31 31 31 31 31 
31 31 31 31 31 31 31 31 31 31 31 14 14 14 14 19 19 19 19 19 
19 19 19 19 19 19 19 19 15 15 15 15 15 15 15 7 7 7 7 7 
7 7 7 7 7 7 7 7 7 7 7 7 7 7 31 31 31 31 31 31 
31 31 31 31 31 31 31 31 31 31 31 14 14 14 14 14 14 19 19 19 
19 19 19 19 19 19 19 19 15 15 15 15 15 15 15 15 7 7 7 7 
7 7 7 7 7 7 7 7 7 7 7 7 7 7 7 31 31 31 31 31 
31 31 31 31 31 31 31 31 31 31 31 14 14 14 14 14 14 14 19 19 
19 19 19 19 19 19 19 19 19 15 15 15 15 15 15 15 15 7 7 7 
7 7 7 7 7 7 7 7 7 7 7 7 7 7 7 7 31 31 31 31 
31 31 31 31 31 31 31 31 31 31 31 31 14 14 14 14 14 14 14 19 
19 19 19 19 19 19 19 19 19 15 15 15 15 15 15 15 15 15 7 7 
7 7 7 7 7 7 7 7 7 7 7 7 7 7 7 7 7 31 31 31 
31 31 31 31 31 31 31 31 31 31 31 31 14 14 14 14 14 14 14 14 
19 19 19 19 19 19 19 19 19 15 15 15 15 15 15 15 15 15 15 7 
7 7 7 7 7 7 7 7 7 7 7 7 7 7 7 7 7 7 31 31 
31 31 31 31 31 31 31 31 31 31 31 31 31 14 14 14 14 14 14 14 
14 14 19 19 19 19 19 19 19 19 15 15 15 15 15 15 15 15 15 15 
7 7 7 7 7 7 7 7 7 7 7 7 7 7 7 7 7 7 7 31 
31 31 31 31 31 31 31 31 31 31 31 31 31 31 14 14 14 14 14 14 
14 14 14 19 19 19 19 19 19 19 19 15 15 15 15 15 15 15 15 15 
15 7 7 7 7 7 7 7 7 7 7 7 7 7 7 7 7 7 7 7 
31 31 31 31 31 31 31 31 31 31 31 31 31 31 31 14 14 14 14 14 
14 14 14 14 19 19 19 19 19 19 19 15 15 15 15 15 15 15 15 15 
15 15 7 7 7 7 7 7 7 7 7 7 7 7 7 7 7 7 7 7 
7 31 31 31 31 31 31 31 31 31 31 31 31 31 31 31 14 14 14 14 
14 14 14 14 14 19 19 19 19 19 19 19 15 15 15 15 15 15 15 15 
15 15 15 7 7 7 7 7 7 7 7 7 7 7 7 7 7 7 7 7 
7 7 31 31 31 31 31 31 31 31 31 31 31 31 31 31 26 14 14 14 
14 14 14 14 14 14 19 19 76 19 19 19 15 15 15 15 15 15 15 15 
15 15 15 15 7 7 7 7 7 7 7 7 7 7 7 7 7 7 7 7 
7 7 7 31 31 31 31 31 31 31 31 31 31 31 31 31 31 14 14 14 
14 14 14 14 14 14 14 14 76 76 19 19 19 15 15 15 15 15 15 15 
15 15 15 15 15 7 7 7 7 7 7 7 7 7 7 7 7 7 7 7 
7 7 7 7 31 31 31 31 31 31 31 31 31 31 31 31 31 31 14 14 
14 14 14 14 14 14 14 14 14 76 76 19 19 19 15 15 15 15 15 15 
15 15 15 15 15 15 7 7 7 7 7 7 7 7 7 7 7 7 7 7 
7 7 7 7 7 31 31 31 31 31 31 31 31 31 31 31 31 31 31 14 
14 14 14 14 14 14 14 14 14 14 19 19 19 19 15 15 15 15 15 15 
15 15 15 15 15 15 15 7 7 7 7 7 7 7 7 7 7 7 7 7 
7 7 7 7 7 7 31 31 31 31 31 31 31 31 31 31 31 31 31 26 
14 14 14 14 14 14 14 14 14 14 14 19 19 19 19 15 15 15 15 15 
15 15 15 15 15 15 15 15 7 7 7 7 7 7 7 7 7 7 7 7 
7 7 7 7 7 7 7 31 31 31 31 31 31 31 31 31 31 31 31 31 
26 14 14 14 14 14 14 14 14 14 14 14 19 19 15 15 15 15 15 15 
15 15 15 15 15 15 15 15 15 7 7 7 7 7 7 7 7 7 7 7 
7 7 7 7 7 7 7 31 31 31 31 31 31 31 31 31 31 31 31 31 
31 26 14 14 14 14 14 14 14 14 14 14 14 19 19 15 15 15 15 15 
15 15 15 15 15 15 15 15 15 15 7 7 7 7 7 7 7 7 7 7 
7 7 7 7 7 7 7 7 31 31 31 31 31 31 31 31 31 31 31 31 
31 31 26 14 14 14 14 14 14 14 14 14 14 14 19 19 15 15 15 15 
15 15 15 15 15 15 15 15 15 15 19 7 7 7 7 7 7 7 7 7 
7 7 7 7 7 7 7 7 7 31 31 31 31 31 31 31 31 31 31 31 
31 31 26 26 14 14 14 14 14 14 14 14 14 14 14 19 19 15 15 15 
15 15 15 15 15 15 15 15 15 15 15 19 7 7 7 7 7 7 7 7 
7 7 7 7 7 7 7 7 7 7 31 31 31 31 31 31 31 31 31 31 
31 31 31 26 26 14 14 14 14 14 14 14 14 14 14 14 19 19 15 15 
15 15 15 15 15 15 15 15 15 15 15 15 19 7 7 7 7 7 7 7 
7 7 7 7 7 7 7 7 7 7 7 7 31 31 31 31 31 31 31 31 
31 31 31 31 26 26 14 14 14 14 14 14 14 14 14 14 14 19 19 19 
15 15 15 15 15 15 15 15 15 15 15 15 19 19 7 7 7 7 7 7 
7 7 7 7 7 7 7 7 7 7 7 7 7 31 31 31 31 31 31 31 
31 31 31 31 26 26 26 14 14 14 14 14 14 14 14 14 14 14 14 19 
19 15 15 15 15 15 15 15 15 15 15 15 15 19 19 7 7 7 7 7 
7 7 7 7 7 7 7 7 7 7 7 7 12 12 31 31 31 31 31 31 
31 31 31 31 31 26 26 26 14 14 14 14 14 14 14 14 14 14 14 14 
19 19 15 15 15 15 15 15 15 15 15 15 15 19 19 19 7 7 7 7 
7 7 7 7 7 7 7 7 7 7 7 7 7 12 12 31 31 31 31 31 
31 31 31 31 31 31 26 26 26 14 14 14 14 14 14 14 14 14 14 14 
19 19 19 15 15 15 15 15 15 15 15 15 15 15 19 19 19 7 7 7 
7 7 7 7 7 7 7 7 7 7 7 7 7 7 12 12 31 31 31 31 
31 31 31 31 31 31 31 31 31 14 14 14 14 14 14 14 14 14 14 14 
14 19 19 19 15 15 15 15 15 15 15 15 15 15 15 19 19 19 19 7 
7 7 7 7 7 7 7 7 7 7 7 7 7 12 12 12 12 31 31 31 
31 31 31 31 31 31 31 31 31 31 31 14 14 14 14 14 14 14 14 14 
14 14 19 19 19 15 15 15 15 15 15 15 15 15 15 15 19 19 19 19 
7 7 7 7 7 7 7 7 7 7 7 7 7 12 12 12 12 12 31 31 
31 31 31 31 31 31 31 31 31 31 31 31 14 14 14 14 14 14 14 14 
14 14 14 19 19 19 15 15 15 15 15 15 15 15 15 15 19 19 19 19 
19 7 7 7 7 7 7 7 7 7 7 7 7 7 12 12 12 17 17 31 
31 31 31 31 31 31 31 31 31 31 31 31 31 31 14 14 14 14 14 14 
14 14 14 19 19 19 19 15 15 15 15 15 15 15 15 15 19 19 19 19 
19 19 7 7 7 7 7 7 7 7 7 7 7 7 12 12 12 17 17 17 
17 31 31 31 31 31 31 31 31 31 31 31 31 31 31 14 14 14 14 14 
14 14 14 14 19 19 19 19 19 15 15 15 15 15 15 15 19 19 19 19 
19 19 19 19 7 7 7 7 7 7 7 7 7 7 12 12 12 17 17 17 
17 17 17 31 31 31 31 31 31 31 31 31 31 31 31 31 14 14 14 14 
14 14 14 14 14 19 19 19 19 19 19 15 15 15 15 15 19 19 19 19 
19 19 19 19 19 7 7 7 7 7 7 7 7 7 12 12 12 12 17 17 
17 17 17 17 31 31 31 31 31 31 31 31 31 31 31 31 31 14 14 14 
14 14 14 14 14 14 19 19 19 19 19 19 19 19 19 19 19 19 19 19 
19 19 19 19 19 19 7 7 7 7 7 7 7 7 12 12 12 12 12 17 
17 17 17 17 17 17 31 31 31 31 31 31 31 31 31 31 31 31 14 14 
14 14 14 14 14 14 14 19 19 19 19 19 19 19 19 19 19 19 19 19 
19 19 19 19 19 19 19 7 7 7 7 7 7 7 12 12 12 12 12 17 
17 17 17 17 17 17 17 17 31 31 31 31 31 31 31 31 31 31 31 14 
14 14 14 14 14 14 14 14 19 19 19 19 19 19 19 19 19 19 19 19 
19 19 19 19 19 19 19 19 7 7 7 7 7 12 12 12 12 12 12 12 
17 17 17 17 17 17 17 17 17 31 31 31 31 31 31 31 31 31 31 31 
14 14 14 14 14 14 14 14 14 19 19 19 19 19 19 19 19 19 19 19 
19 19 19 19 19 19 19 19 19 19 7 7 12 12 12 12 12 12 12 12 
12 17 17 17 17 17 17 17 17 17 31 31 31 31 31 31 31 31 31 31 
31 31 14 14 14 14 14 14 14 14 19 19 19 19 19 19 19 19 19 19 
19 19 19 19 19 19 19 19 19 19 12 12 12 12 12 12 12 12 12 12 
12 17 17 17 17 17 17 17 17 17 17 31 31 31 31 31 31 31 31 31 
31 31 31 14 14 14 14 14 14 14 14 19 19 19 19 19 19 19 19 19 
19 19 19 19 19 19 19 19 19 19 19 12 12 12 12 12 12 12 12 12 
12 12 17 17 17 17 17 17 17 17 17 17 31 31 31 31 31 31 31 31 
31 31 31 31 14 14 14 14 14 14 14 14 19 19 19 19 19 19 19 19 
19 19 19 19 19 19 19 19 19 19 19 19 12 12 12 12 12 12 12 12 
12 12 12 17 17 17 17 17 17 17 17 17 17 31 31 31 31 31 31 31 
31 31 31 31 31 14 14 14 14 14 14 14 14 19 19 19 19 19 19 19 
19 19 19 19 19 19 19 19 19 19 19 19 19 12 12 12 12 12 12 12 
12 12 12 12 17 17 17 17 17 17 17 17 17 17 31 31 31 31 31 31 
31 31 31 31 31 31 14 14 14 14 14 14 14 14 19 19 19 19 19 19 
19 19 19 19 19 19 19 19 19 19 19 19 19 19 12 12 12 12 12 12 
12 12 12 12 12 17 17 17 17 17 17 17 17 17 17 31 31 31 31 31 
31 31 31 31 31 31 31 14 14 14 14 14 14 14 14 19 19 19 19 19 
19 19 19 19 19 19 19 19 19 19 19 19 19 19 19 12 12 12 12 12 
12 12 12 12 12 17 17 17 17 17 17 17 17 17 17 17 31 31 31 31 
31 31 31 31 31 31 31 31 14 14 14 14 14 14 14 14 19 19 19 19 
19 19 19 19 19 19 19 19 19 19 19 19 19 19 19 19 12 12 12 12 
12 12 12 12 12 12 17 17 17 17 17 17 17 17 17 17 31 31 31 31 
31 31 31 31 31 31 31 31 31 14 14 14 14 14 14 14 14 19 19 19 
19 19 19 19 19 19 19 19 19 19 19 19 19 19 19 19 19 12 12 12 
12 12 12 12 12 12 12 17 17 17 17 17 17 17 17 17 17 31 31 31 
31 31 31 31 31 31 31 31 31 31 14 14 14 14 14 14 14 19 19 19 
19 19 19 19 19 19 19 19 19 19 19 19 19 19 19 19 19 19 12 12 
12 12 12 12 12 12 12 12 17 17 17 17 17 17 17 17 17 17 31 31 
31 31 31 31 31 31 31 31 31 31 31 14 14 14 14 14 14 14 19 19 
19 19 19 19 19 19 19 19 19 19 19 19 19 19 19 19 19 19 19 12 
12 12 12 12 12 12 12 12 12 17 17 17 17 17 17 17 17 17 17 31 
31 31 31 31 31 31 31 31 31 31 31 31 14 14 14 14 14 14 14 19 
19 19 19 19 19 19 19 19 19 19 19 19 19 19 19 19 19 19 19 19 
12 12 12 12 12 12 12 12 12 12 17 17 17 17 17 17 17 17 17 31 
31 31 31 31 31 31 31 31 31 31 31 31 31 14 14 14 14 14 14 14 
19 19 19 19 19 19 19 19 19 19 19 19 19 19 19 19 19 19 19 19 
19 12 12 12 12 12 12 12 12 12 12 17 17 17 17 17 17 17 17 17 
31 31 31 31 31 31 31 31 31 31 31 31 31 31 14 14 14 14 14 14 
19 19 19 19 19 19 19 19 19 19 19 19 19 19 19 19 19 19 19 19 
19 19 12 12 12 12 12 12 12 12 12 12 17 17 17 17 17 17 17 17 
31 31 31 31 31 31 31 31 31 31 31 31 31 31 31 14 14 14 14 14 
14 19 19 19 19 19 19 19 19 19 19 19 19 19 19 19 19 19 19 19 
19 19 19 12 12 12 12 12 12 12 12 12 12 17 17 17 17 17 17 17 
17 31 31 31 31 31 31 31 31 31 31 31 31 31 31 31 14 14 14 14 
14 14 19 19 19 19 19 19 19 19 19 19 19 19 19 19 19 19 19 19 
19 19 19 19 12 12 12 12 12 12 12 12 12 12 17 17 17 17 17 17 
17 31 31 31 31 31 31 31 31 31 31 31 31 31 31 31 31 14 14 14 
14 14 14 19 19 19 19 19 19 19 19 19 19 19 19 19 19 19 19 19 
19 19 19 19 19 12 12 12 12 12 12 12 12 12 12 12 17 17 17 17 
17 17 31 31 31 31 31 31 31 31 31 31 31 31 31 31 31 31 31 14 
14 14 14 14 1 19 19 19 19 19 19 19 19 19 19 19 19 19 19 19 
19 19 19 19 19 19 12 12 12 12 12 12 12 12 12 12 7 7 7 7 
17 17 31 31 31 31 31 31 31 31 31 31 31 31 31 31 31 31 31 31 
14 14 14 14 14 1 19 19 19 19 19 19 19 19 19 19 19 19 19 19 
19 19 19 19 19 19 19 19 12 12 12 12 12 12 12 12 7 7 7 7 
7 7 7 31 31 31 31 31 31 31 31 31 31 31 31 31 31 31 31 31 
31 14 14 14 14 1 1 19 19 19 19 19 19 19 19 19 19 19 19 19 
19 19 19 19 19 19 19 19 19 12 12 12 12 12 12 12 7 7 7 7 
7 7 7 7 31 31 31 31 31 31 31 31 31 31 31 31 31 31 31 31 
31 31 14 14 14 14 1 1 19 19 19 19 19 19 19 19 19 19 19 19 
19 19 19 19 19 19 19 19 19 19 12 12 12 12 12 12 12 7 7 7 
7 7 7 7 7 31 31 31 31 31 31 31 31 31 31 31 31 31 31 31 
31 31 31 14 14 14 14 1 1 19 19 19 19 19 19 19 19 19 19 19 
19 19 19 19 19 19 19 19 19 19 19 12 12 12 12 12 12 7 7 7 
7 7 7 7 7 7 31 31 31 31 31 31 31 31 31 31 31 31 31 31 
31 31 31 31 31 14 14 1 1 1 19 19 19 19 19 19 19 19 19 19 
19 19 19 19 19 19 19 19 19 19 19 19 12 12 12 12 12 7 7 7 
7 7 7 7 7 7 7 31 31 31 31 31 31 31 31 31 31 31 31 31 
31 31 31 31 31 31 14 14 1 1 1 19 19 19 19 19 19 19 19 19 
19 19 19 19 19 19 19 19 19 19 19 19 19 12 12 12 12 7 7 7 
7 7 7 7 7 7 7 7 31 31 31 31 31 31 31 31 31 31 31 31 
31 31 31 31 31 31 31 1 1 1 1 1 19 19 19 19 19 19 19 19 
19 19 19 19 19 19 19 19 19 19 19 19 19 19 12 12 12 7 7 7 
7 7 7 7 7 7 7 7 7 31 31 31 31 31 31 31 31 31 31 31 
31 31 31 31 31 31 31 31 1 1 1 1 1 19 19 19 19 19 19 19 
19 19 19 19 19 19 19 19 19 19 19 19 19 19 19 19 12 7 7 7 
7 7 7 7 7 7 7 7 7 7 7 31 31 31 31 31 31 31 31 31 
31 31 31 31 31 31 31 31 31 1 1 1 1 1 19 19 19 19 19 19 
19 19 19 19 19 19 19 19 19 19 19 19 19 19 19 19 19 9 9 9 
7 7 7 7 7 7 7 7 7 7 7 31 31 31 31 31 31 31 31 31 
31 31 31 31 31 31 31 31 31 31 1 1 1 1 1 19 19 19 19 19 
19 19 19 19 19 19 19 19 19 19 19 19 19 19 19 19 19 9 9 9 
9 7 7 7 7 7 7 7 7 7 7 7 31 31 31 31 31 31 31 31 
31 31 31 31 31 31 31 31 31 31 31 1 1 1 1 19 19 19 19 19 
19 19 19 19 19 19 19 19 19 19 19 19 19 19 19 19 19 19 9 9 
9 9 7 7 7 7 7 7 7 7 7 7 7 31 31 31 31 31 31 31 
31 31 31 31 31 31 31 31 31 31 31 31 1 1 1 1 19 19 19 19 
19 19 19 19 19 19 19 19 19 19 19 19 19 19 19 19 19 19 19 9 
9 9 9 7 7 7 7 7 7 7 7 7 7 7 31 31 31 31 31 31 
31 31 31 31 31 31 31 31 31 31 31 31 31 1 1 1 1 19 19 19 
19 19 19 19 19 19 19 19 19 19 19 19 19 19 19 19 19 19 19 19 
9 9 9 7 7 7 7 7 7 7 7 7 7 7 7 7 31 31 31 31 
31 31 31 31 31 31 31 31 31 31 31 31 31 31 1 1 1 1 19 19 
19 19 19 19 19 19 19 19 19 19 19 19 19 19 19 19 19 19 19 19 
19 9 9 9 7 7 7 7 7 7 7 7 7 7 7 7 7 31 31 31 
31 31 31 31 31 31 31 31 31 31 31 31 31 31 31 19 19 19 19 19 
19 19 19 19 19 19 19 19 19 19 19 19 19 19 19 19 19 19 19 19 
19 19 7 7 7 7 7 7 7 7 7 7 7 7 7 7 7 7 31 31 
31 31 31 31 31 31 31 31 31 31 31 31 31 31 31 31 19 19 19 19 
19 19 19 19 19 19 19 19 19 19 19 19 19 19 19 19 19 19 19 19 
19 19 19 7 7 7 7 7 7 7 7 7 7 7 7 7 7 7 7 31 
31 31 31 31 31 31 31 31 31 31 31 31 31 31 31 31 31 19 19 19 
19 19 19 19 19 19 19 19 19 19 19 19 19 19 19 19 19 19 19 19 
19 19 19 7 7 7 7 7 7 7 7 7 7 7 7 7 7 7 7 7 
31 31 31 31 31 31 31 31 31 31 31 31 31 31 31 31 31 31 19 19 
19 19 19 19 19 19 19 19 19 19 19 19 19 19 19 19 19 19 19 19 
19 19 19 19 7 7 7 7 7 7 7 7 7 7 7 7 7 7 7 7 
7 31 31 31 31 31 31 31 31 31 31 31 31 31 31 31 31 31 31 19 
19 19 19 19 19 19 19 19 19 19 19 19 19 19 19 19 19 19 19 19 
19 19 19 19 19 7 7 7 7 7 7 7 7 7 7 7 7 7 7 7 
7 7 31 31 31 31 31 31 31 31 31 31 31 31 31 31 31 31 31 31 
19 19 19 19 19 19 19 19 19 19 19 19 19 19 19 19 19 19 19 19 
19 19 19 19 19 19 7 7 7 7 7 7 7 7 7 7 7 7 7 7 
7 7 7 31 31 31 31 31 31 31 31 31 31 31 31 31 31 31 31 31 
31 19 19 19 19 19 19 19 19 19 19 19 19 19 19 19 19 19 19 19 
19 19 19 19 19 19 19 7 7 7 7 7 7 7 7 7 7 7 7 7 
7 7 7 7 31 31 31 31 31 31 31 31 31 31 31 31 31 31 31 31 
31 31 19 19 19 19 19 19 19 19 19 19 19 19 19 19 19 19 19 19 
19 19 19 19 19 19 19 7 7 7 7 7 7 7 7 7 7 7 7 7 
7 7 7 7 7 31 31 31 31 31 31 31 31 31 31 31 31 31 31 31 
31 31 31 19 19 19 19 19 19 19 19 19 19 19 19 19 19 19 19 19 
19 19 19 19 19 19 19 19 7 7 7 7 7 7 7 7 7 7 7 7 
7 7 7 7 7 7 31 31 31 31 31 31 31 31 31 31 31 31 31 31 
31 31 31 31 19 19 19 19 19 19 19 19 19 19 19 19 19 19 19 19 
19 19 19 19 19 19 19 19 19 7 7 7 7 7 7 7 7 7 7 7 
7 7 7 7 7 7 7 31 31 31 31 31 31 31 31 31 31 31 31 31 
31 31 31 31 31 19 19 19 19 19 19 19 19 19 19 19 19 19 19 19 
19 19 19 19 19 19 19 19 19 19 7 7 7 7 7 7 7 7 7 7 
7 7 7 7 7 7 7 7 31 31 31 31 31 31 31 31 31 31 31 31 
31 31 31 31 31 31 19 19 19 19 19 19 19 19 19 19 19 19 19 19 
19 19 19 19 19 19 19 19 19 19 19 7 7 7 7 7 7 7 7 7 
7 7 7 7 7 7 7 7 7 31 31 31 31 31 31 31 31 31 31 31 
31 31 31 31 31 31 31 19 19 19 19 19 19 19 19 19 19 19 19 19 
19 19 19 19 19 19 19 19 19 19 19 7 7 7 7 7 7 7 7 7 
7 7 7 7 7 7 7 7 7 7 31 31 31 31 31 31 31 31 31 31 
31 31 31 31 31 31 31 26 19 19 19 19 19 19 19 19 19 19 19 19 
19 19 19 19 19 19 19 19 19 19 19 19 7 7 7 7 7 7 7 7 
7 7 7 7 7 7 7 7 7 7 7 31 31 31 31 31 31 31 31 31 
31 31 31 31 31 31 31 31 26 14 14 19 19 19 19 19 19 19 19 19 
19 19 19 19 19 19 19 19 19 19 19 19 19 7 7 7 7 7 7 7 
7 7 7 7 7 7 7 7 7 7 7 7 31 31 31 31 31 31 31 31 
31 31 31 31 31 31 31 31 31 26 14 14 14 19 19 19 19 19 19 19 
19 19 19 19 19 19 19 19 19 19 19 19 19 19 7 7 7 7 7 7 
7 7 7 7 7 7 7 7 7 7 7 7 7 31 31 31 31 31 31 31 
31 31 31 31 31 31 31 31 31 31 26 14 14 14 19 19 19 19 19 19 
19 19 19 19 19 19 19 19 19 19 19 15 15 15 15 7 7 7 7 7 
7 7 7 7 7 7 7 7 7 7 7 7 7 7 31 31 31 31 31 31 
31 31 31 31 31 31 31 31 31 31 26 26 14 14 14 14 19 19 19 19 
19 19 19 19 19 19 19 19 19 19 15 15 15 15 15 15 7 7 7 7 
7 7 7 7 7 7 7 7 7 7 7 7 7 7 7 31 31 31 31 31 
31 31 31 31 31 31 31 31 31 31 31 26 26 14 14 14 14 19 19 19 
19 19 19 19 19 19 19 19 19 19 15 15 15 15 15 15 15 7 7 7 
7 7 7 7 7 7 7 7 7 7 7 7 7 7 7 7 31 31 31 31 
31 31 31 31 31 31 31 31 31 31 31 31 26 26 14 14 14 14 19 19 
19 19 76 76 19 19 19 19 19 19 19 15 15 15 15 15 15 15 7 7 
7 7 7 7 7 7 7 7 7 7 7 7 7 7 7 7 7 31 31 31 
31 31 31 31 31 31 31 31 31 31 31 31 26 26 14 14 14 14 14 19 
19 19 76 76 76 19 19 19 19 19 19 15 15 15 15 15 15 15 15 7 
7 7 7 7 7 7 7 7 7 7 7 7 7 7 7 7 7 7 31 31 
31 31 31 31 31 31 31 31 31 31 31 31 31 26 14 14 14 14 14 14 
14 19 19 76 76 76 19 19 19 19 19 15 15 15 15 15 15 15 15 15 
7 7 7 7 7 7 7 7 7 7 7 7 7 7 7 7 7 7 7 31 
31 31 31 31 31 31 31 31 31 31 31 31 31 31 26 14 14 14 14 14 
14 14 19 76 76 76 76 19 19 19 19 19 15 15 15 15 15 15 15 15 
15 7 7 7 7 7 7 7 7 7 7 7 7 7 7 7 7 7 7 7 
31 31 31 31 31 31 31 31 31 31 31 31 31 31 31 26 14 14 14 14 
14 14 14 14 76 76 76 76 19 19 19 19 15 15 15 15 15 15 15 15 
15 19 7 7 7 7 7 7 7 7 7 7 7 7 7 7 7 7 7 7 
7 31 31 31 31 31 31 31 31 31 31 31 31 31 31 31 26 14 14 14 
14 14 14 14 14 76 76 76 76 19 19 19 19 15 15 15 15 15 15 15 
15 15 19 7 7 7 7 7 7 7 7 7 7 7 7 7 7 7 7 7 
7 7 31 31 31 31 31 31 31 31 31 31 31 31 31 31 26 26 14 14 
14 14 14 14 14 14 76 76 76 76 19 19 19 15 15 15 15 15 15 15 
15 15 15 19 7 7 7 7 7 7 7 7 7 7 7 7 7 7 7 7 
7 7 7 31 31 31 31 31 31 31 31 31 31 31 31 31 31 26 26 26 
14 14 14 14 14 14 14 76 76 76 76 19 19 19 15 15 15 15 15 15 
15 15 15 15 19 7 7 7 7 7 7 7 7 7 7 7 7 7 7 7 
7 7 7 7 31 31 31 31 31 31 31 31 31 31 31 31 31 26 26 26 
14 14 14 14 14 14 14 76 76 76 76 76 19 19 15 15 15 15 15 15 
15 15 15 15 19 19 7 7 7 7 7 7 7 7 7 7 7 7 7 7 
7 7 7 7 7 31 31 31 31 31 31 31 31 31 31 31 31 31 26 26 
26 14 14 14 14 14 14 14 14 76 76 76 76 19 19 15 15 15 15 15 
15 15 15 15 15 19 19 7 7 7 7 7 7 7 7 7 7 7 7 7 
7 7 7 7 12 12 31 31 31 31 31 31 31 31 31 31 31 31 31 26 
26 26 14 14 14 14 14 14 14 14 76 76 76 19 19 15 15 15 15 15 
15 15 15 15 15 15 19 19 7 7 7 7 7 7 7 7 7 7 7 7 
7 7 7 7 7 12 12 31 31 31 31 31 31 31 31 31 31 31 31 26 
26 26 26 14 14 14 14 14 14 14 14 76 76 76 19 19 15 15 15 15 
15 15 15 15 15 15 15 19 19 19 7 7 7 7 7 7 7 7 7 7 
7 7 7 7 7 7 12 12 31 31 31 31 31 31 31 31 31 31 31 31 
26 26 26 26 14 14 14 14 14 14 14 14 19 19 19 19 19 15 15 15 
15 15 15 15 15 15 15 15 19 19 19 7 7 7 7 7 7 7 7 7 
7 7 7 7 7 7 12 12 12 31 31 31 31 31 31 31 31 31 31 31 
31 26 26 26 26 14 14 14 14 14 14 14 14 19 19 19 19 19 15 15 
15 15 15 15 15 15 15 15 15 19 19 19 7 7 7 7 7 7 7 7 
7 7 7 7 7 7 7 12 12 12 31 31 31 31 31 31 31 31 31 31 
31 31 26 26 26 26 14 14 14 14 14 14 14 14 19 19 19 19 19 19 
19 15 15 15 15 15 15 19 19 19 19 19 19 7 7 7 7 7 7 7 
7 7 7 7 7 7 7 12 12 12 12 31 31 31 31 31 31 31 31 31 
31 31 26 26 26 26 26 14 14 14 14 14 14 14 14 19 19 19 19 19 
19 19 19 15 15 15 15 19 19 19 19 19 19 19 7 7 7 7 7 7 
7 7 7 7 7 7 7 12 12 12 12 12 31 31 31 31 31 31 31 31 
31 31 31 26 26 26 26 26 14 14 14 14 14 14 14 19 19 19 19 19 
19 19 19 19 19 19 19 19 19 19 19 19 19 19 19 7 7 7 7 7 
7 7 7 7 7 7 7 7 12 12 12 12 12 31 31 31 31 31 31 31 
31 31 31 31 26 26 26 26 26 14 14 14 14 14 14 14 19 19 19 19 
19 19 19 19 19 19 19 19 19 19 19 19 19 19 19 19 7 7 7 7 
7 7 7 7 7 7 7 7 12 12 12 12 12 12 31 31 31 31 31 31 
31 31 31 31 31 26 26 26 26 26 14 14 14 14 14 14 14 14 19 19 
19 19 19 19 19 19 19 19 19 19 19 19 19 19 19 19 19 7 7 7 
7 7 7 7 7 7 7 7 12 12 12 12 12 12 12 31 31 31 31 31 
31 31 31 31 31 26 26 26 26 26 26 14 14 14 14 14 14 14 14 19 
19 19 19 19 19 19 19 19 19 19 19 19 19 19 19 19 19 19 7 7 
7 7 7 7 7 7 7 7 7 12 12 12 12 12 12 12 31 31 31 31 
31 31 31 31 31 31 26 26 26 26 26 26 14 14 14 14 14 14 14 14 
19 19 19 19 19 19 19 19 19 19 19 19 19 19 19 19 19 19 19 7 
7 7 7 7 7 7 7 7 7 12 12 12 12 12 12 12 12 31 31 31 
31 31 31 31 31 31 31 26 26 26 26 26 14 14 14 14 14 14 14 14 
14 19 19 19 19 19 19 19 19 19 19 19 19 19 19 19 19 19 19 19 
19 7 7 7 7 7 7 7 7 12 12 12 12 12 12 12 12 12 31 31 
31 31 31 31 31 31 31 31 31 31 31 26 26 14 14 14 14 14 14 14 
14 14 19 19 19 19 19 19 19 19 19 19 19 19 19 19 19 19 19 19 
19 19 7 7 7 7 7 7 7 12 12 12 12 12 12 12 12 12 12 31 
31 31 31 31 31 31 31 31 31 31 31 31 31 26 14 14 14 14 14 14 
14 14 14 19 19 19 19 19 19 19 19 19 19 19 19 19 19 19 19 19 
19 19 19 7 7 7 7 7 12 12 12 12 12 12 12 12 12 12 12 12 
31 31 31 31 31 31 31 31 31 31 31 31 31 31 31 14 14 14 14 14 
14 14 14 19 19 19 19 19 19 19 19 19 19 19 19 19 19 19 19 19 
19 19 19 19 7 7 7 7 12 12 12 12 12 12 12 12 12 12 12 12 
17 17 31 31 31 31 31 31 31 31 31 31 31 31 31 31 14 14 14 14 
14 14 14 14 19 19 19 19 19 19 19 19 19 19 19 19 19 19 19 19 
19 19 19 19 19 7 7 12 12 12 12 12 12 12 12 12 12 12 12 12 
12 17 17 17 31 31 31 31 31 31 31 31 31 31 31 31 31 14 14 14 
14 14 14 14 14 19 19 19 19 19 19 19 19 19 19 19 19 19 19 19 
19 19 19 19 19 19 12 12 12 12 12 12 12 12 12 12 12 12 12 12 
12 17 17 17 17 31 31 31 31 31 31 31 31 31 31 31 31 31 14 14 
14 14 14 14 14 14 19 19 19 19 19 19 19 19 19 19 19 19 19 19 
19 19 19 19 19 19 19 12 12 12 12 12 12 12 12 12 12 12 12 12 
12 12 17 17 17 17 17 31 31 31 31 31 31 31 31 31 31 31 31 14 
14 14 14 14 14 14 14 19 19 19 19 19 19 19 19 19 19 19 19 19 
19 19 19 19 19 19 19 19 12 12 12 12 12 12 12 12 12 12 12 12 
12 12 17 17 17 17 17 17 17 31 31 31 31 31 31 31 31 31 31 31 
31 14 14 14 14 14 14 14 19 19 19 19 19 19 19 19 19 19 19 19 
19 19 19 19 19 19 19 19 19 12 12 12 12 12 12 12 12 12 12 12 
12 12 12 17 17 17 17 17 17 17 31 31 31 31 31 31 31 31 31 31 
31 31 14 14 14 14 14 14 14 19 19 19 19 19 19 19 19 19 19 19 
19 19 19 19 19 19 19 19 19 19 12 12 12 12 12 12 12 12 12 12 
12 12 12 12 17 17 17 17 17 17 17 31 31 31 31 31 31 31 31 31 
31 31 31 14 14 14 14 14 14 19 19 19 19 19 19 19 19 19 19 19 
19 19 19 19 19 19 19 19 19 19 19 12 12 12 12 12 12 12 12 12 
12 12 12 12 12 17 17 17 17 17 17 17 31 31 31 31 31 31 31 31 
31 31 31 31 14 14 14 14 14 14 19 19 19 19 19 19 19 19 19 19 
19 19 19 19 19 19 19 19 19 19 19 19 12 12 12 12 12 12 12 12 
12 12 12 12 12 17 17 17 17 17 17 17 17 31 31 31 31 31 31 31 
31 31 31 31 31 14 14 14 14 14 14 19 19 19 19 19 19 19 19 19 
19 19 19 19 19 19 19 19 19 19 19 19 19 12 12 12 12 12 12 12 
12 12 12 12 12 12 17 17 17 17 17 17 17 17 31 31 31 31 31 31 
31 31 31 31 31 31 14 14 14 14 14 14 19 19 19 19 19 19 19 19 
19 19 19 19 19 19 19 19 19 19 19 19 19 19 12 12 12 12 12 12 
12 12 12 12 12 12 12 17 17 17 17 17 17 17 31 31 31 31 31 31 
31 31 31 31 31 31 31 14 14 14 14 14 14 19 19 19 19 19 19 19 
19 19 19 19 19 19 19 19 19 19 19 19 19 19 19 12 12 12 12 12 
12 12 12 12 12 12 12 12 17 17 17 17 17 17 17 31 31 31 31 31 
31 31 31 31 31 31 31 31 14 14 14 14 14 19 19 19 19 19 19 19 
19 19 19 19 19 19 19 19 19 19 19 19 19 19 19 19 12 12 12 12 
12 12 12 12 12 12 12 12 12 17 17 17 17 17 17 17 31 31 31 31 
31 31 31 31 31 31 31 31 31 14 14 14 14 14 19 19 19 19 19 19 
19 19 19 19 19 19 19 19 19 19 19 19 19 19 19 19 19 12 12 12 
12 12 12 12 12 12 12 12 12 12 17 17 17 17 17 17 17 31 31 31 
31 31 31 31 31 31 31 31 31 31 14 14 14 14 14 19 19 19 19 19 
19 19 19 19 19 19 19 19 19 19 19 19 19 19 19 19 19 19 12 12 
12 12 12 12 12 12 12 12 12 12 12 17 17 17 17 17 17 31 31 31 
31 31 31 31 31 31 31 31 31 31 31 14 14 14 14 14 19 19 19 19 
19 19 19 19 19 19 19 19 19 19 19 19 19 19 19 19 19 19 19 12 
12 12 12 12 12 12 12 12 12 12 12 12 17 17 17 17 17 17 31 31 
31 31 31 31 31 31 31 31 31 31 31 31 14 14 14 14 19 19 19 19 
19 19 19 19 19 19 19 19 19 19 19 19 19 19 19 19 19 19 19 19 
12 12 12 12 12 12 12 12 12 12 12 12 12 17 17 17 17 17 17 31 
31 31 31 31 31 31 31 31 31 31 31 31 31 14 14 14 14 19 19 19 
19 19 19 19 19 19 19 19 19 19 19 19 19 19 19 19 19 19 19 19 
19 12 12 12 12 12 12 12 12 12 12 12 12 17 17 17 17 17 17 17 
31 31 31 31 31 31 31 31 31 31 31 31 31 31 14 14 14 14 19 19 
19 19 19 19 19 19 19 19 19 19 19 19 19 19 19 19 19 19 19 19 
19 19 12 12 12 12 12 12 12 12 12 12 12 12 17 17 17 17 17 17 
17 31 31 31 31 31 31 31 31 31 31 31 31 31 31 14 14 14 14 19 
19 19 19 19 19 19 19 19 19 19 19 19 19 19 19 19 19 19 19 19 
19 19 19 12 12 12 12 12 12 12 12 12 12 12 12 17 17 17 17 17 
17 31 31 31 31 31 31 31 31 31 31 31 31 31 31 31 14 14 14 19 
19 19 19 19 19 19 19 19 19 19 19 19 19 19 19 19 19 19 19 19 
19 19 19 19 12 12 12 12 12 12 12 12 12 12 12 17 17 17 17 17 
17 31 31 31 31 31 31 31 31 31 31 31 31 31 31 31 31 14 14 14 
19 19 19 19 19 19 19 19 19 19 19 19 19 19 19 19 19 19 19 19 
19 19 19 19 19 12 12 12 12 12 12 12 12 12 12 12 17 17 17 17 
17 17 31 31 31 31 31 31 31 31 31 31 31 31 31 31 31 31 31 14 
14 19 19 19 19 19 19 19 19 19 19 19 19 19 19 19 19 19 19 19 
19 19 19 19 19 19 12 12 12 12 12 12 12 12 12 12 12 7 7 7 
7 7 31 31 31 31 31 31 31 31 31 31 31 31 31 31 31 31 31 31 
14 14 19 19 19 19 19 19 19 19 19 19 19 19 19 19 19 19 19 19 
19 19 19 19 19 19 19 12 12 12 12 12 12 12 12 12 12 7 7 7 
7 7 7 7 31 31 31 31 31 31 31 31 31 31 31 31 31 31 31 31 
31 14 14 19 19 19 19 19 19 19 19 19 19 19 19 19 19 19 19 19 
19 19 19 19 19 19 19 19 19 12 12 12 12 12 12 12 12 7 7 7 
7 7 7 7 31 31 31 31 31 31 31 31 31 31 31 31 31 31 31 31 
31 31 14 14 19 19 19 19 19 19 19 19 19 19 19 19 19 19 19 19 
19 19 19 19 19 19 19 19 19 19 12 12 12 12 12 12 12 7 7 7 
7 7 7 7 7 31 31 31 31 31 31 31 31 31 31 31 31 31 31 31 
31 31 31 14 14 19 19 19 19 19 19 19 19 19 19 19 19 19 19 19 
19 19 19 19 19 19 19 19 19 19 19 12 12 12 12 12 12 12 7 7 
7 7 7 7 7 7 31 31 31 31 31 31 31 31 31 31 31 31 31 31 
31 31 31 31 31 14 19 19 19 19 19 19 19 19 19 19 19 19 19 19 
19 19 19 19 19 19 19 19 19 19 19 19 12 12 12 12 12 12 7 7 
7 7 7 7 7 7 7 7 31 31 31 31 31 31 31 31 31 31 31 31 
31 31 31 31 31 31 19 19 19 19 19 19 19 19 19 19 19 19 19 19 
19 19 19 19 19 19 19 19 19 19 19 19 19 12 12 12 12 12 7 7 
7 7 7 7 7 7 7 7 7 31 31 31 31 31 31 31 31 31 31 31 
31 31 31 31 31 31 31 19 19 19 19 19 19 19 19 19 19 19 19 19 
19 19 19 19 19 19 19 19 19 19 19 19 19 19 12 12 12 12 7 7 
7 7 7 7 7 7 7 7 7 7 31 31 31 31 31 31 31 31 31 31 
31 31 31 31 31 31 31 31 19 19 19 19 19 19 19 19 19 19 19 19 
19 19 19 19 19 19 19 19 19 19 19 19 19 19 19 12 12 12 7 7 
7 7 7 7 7 7 7 7 7 7 7 31 31 31 31 31 31 31 31 31 
31 31 31 31 31 31 31 31 31 19 19 19 19 19 19 19 19 19 19 19 
19 19 19 19 19 19 19 19 19 19 19 19 19 19 19 19 19 12 7 7 
7 7 7 7 7 7 7 7 7 7 7 7 31 31 31 31 31 31 31 31 
31 31 31 31 31 31 31 31 31 31 19 19 19 19 19 19 19 19 19 19 
19 19 19 19 19 19 19 19 19 19 19 19 19 19 19 19 19 19 7 7 
7 7 7 7 7 7 7 7 7 7 7 7 7 31 31 31 31 31 31 31 
31 31 31 31 31 31 31 31 31 31 31 19 19 19 19 19 19 19 19 19 
19 19 19 19 19 19 19 19 19 19 19 19 19 19 19 19 19 19 19 7 
7 7 7 7 7 7 7 7 7 7 7 7 7 7 31 31 31 31 31 31 
31 31 31 31 31 31 31 31 31 31 31 31 19 19 19 19 19 19 19 19 
19 19 19 19 19 19 19 19 19 19 19 19 19 19 19 19 19 19 19 7 
7 7 7 7 7 7 7 7 7 7 7 7 7 7 7 31 31 31 31 31 
31 31 31 31 31 31 31 31 31 31 31 31 31 19 19 19 19 19 19 19 
19 19 19 19 19 19 19 19 19 19 19 19 19 19 19 19 19 19 19 19 
7 7 7 7 7 7 7 7 7 7 7 7 7 7 7 7 31 31 31 31 
31 31 31 31 31 31 31 31 31 31 31 31 31 31 19 19 19 19 19 19 
19 19 19 19 19 19 19 19 19 19 19 19 19 19 19 19 19 19 19 19 
19 7 7 7 7 7 7 7 7 7 7 7 7 7 7 7 7 31 31 31 
31 31 31 31 31 31 31 31 31 31 31 31 31 31 31 19 19 19 19 19 
19 19 19 19 19 19 19 19 19 19 19 19 19 19 19 19 19 19 19 19 
19 19 7 7 7 7 7 7 7 7 7 7 7 7 7 7 7 7 31 31 
31 31 31 31 31 31 31 31 31 31 31 31 31 31 31 31 19 19 19 19 
19 19 19 19 19 19 19 19 19 19 19 19 19 19 19 19 19 19 19 19 
19 19 19 7 7 7 7 7 7 7 7 7 7 7 7 7 7 7 7 31 
31 31 31 31 31 31 31 31 31 31 31 31 31 31 31 31 31 19 19 19 
19 19 19 19 19 19 19 19 19 19 19 19 19 19 19 19 19 19 19 19 
19 19 19 19 7 7 7 7 7 7 7 7 7 7 7 7 7 7 7 7 
31 31 31 31 31 31 31 31 31 31 31 31 31 31 31 31 31 31 19 19 
19 19 19 19 19 19 19 19 19 19 19 19 19 19 19 19 19 19 19 19 
19 19 19 19 7 7 7 7 7 7 7 7 7 7 7 7 7 7 7 7 
7 31 31 31 31 31 31 31 31 31 31 31 31 31 31 31 31 31 31 19 